<?xml version="1.0"?>
<VTKFile type="PolyData" version="0.1" byte_order="LittleEndian" compressor="vtkZLibDataCompressor">
	<PolyData>
		<Piece NumberOfPoints="456" NumberOfVerts="0" NumberOfLines="0" NumberOfStrips="0" NumberOfPolys="908">
		<PointData Normals="Normals">
		<DataArray type="Float32" Name="Normals" NumberOfComponents="3" format="ascii">
			-0.414907 0.769227 -0.485944
			-0.542287 0.339365 -0.768607
			-0.692514 0.594978 -0.407954
			-0.176723 0.731801 -0.658207
			-0.360066 0.849914 -0.384707
			-0.036518 0.816506 -0.576182
			-0.847118 0.291650 -0.444220
			-0.825192 0.020110 -0.564495
			-0.661042 -0.128079 -0.739337
			-0.379484 0.009660 -0.925148
			-0.148819 0.216774 -0.964812
			-0.105815 0.478885 -0.871477
			-0.588911 0.792925 -0.156376
			-0.847703 0.522950 -0.089008
			0.179944 0.553330 -0.813293
			-0.246807 0.948950 -0.196418
			0.019909 0.907854 -0.418813
			0.283567 0.748387 -0.599589
			-0.976277 0.089363 -0.197226
			-0.865443 -0.235791 -0.442052
			-0.606844 -0.321988 -0.726680
			-0.265101 -0.213477 -0.940292
			-0.038413 -0.077761 -0.996232
			0.161315 0.196705 -0.967101
			-0.526050 0.850344 -0.013666
			-0.735586 0.665947 0.124204
			-0.949408 0.289224 0.122369
			0.450857 0.443172 -0.774807
			-0.176762 0.982363 0.060972
			0.073819 0.989866 -0.121306
			0.302403 0.910730 -0.281289
			0.537573 0.723010 -0.433903
			-0.980438 -0.164826 -0.107577
			-0.805707 -0.429541 -0.407837
			-0.518053 -0.518612 -0.680194
			-0.129373 -0.450298 -0.883456
			0.176590 -0.218810 -0.959655
			0.383324 0.079951 -0.920148
			-0.442487 0.870040 0.217338
			-0.706616 0.626689 0.328566
			-0.890846 0.271757 0.364062
			-0.972435 -0.122609 0.198333
			0.655773 0.078440 -0.750872
			0.709620 0.433464 -0.555472
			-0.261807 0.857633 0.442632
			-0.005573 0.960547 0.278063
			0.235436 0.964886 0.116467
			0.503702 0.862790 -0.043329
			0.759693 0.619514 -0.197656
			-0.878548 -0.470998 -0.079455
			-0.659697 -0.643830 -0.387662
			-0.294464 -0.688124 -0.663156
			0.098801 -0.566802 -0.817908
			0.404970 -0.275454 -0.871851
			-0.545069 0.623924 0.560017
			-0.762016 0.249269 0.597659
			-0.866726 -0.191422 0.460591
			-0.865384 -0.494927 0.078466
			0.807594 -0.109928 -0.579402
			0.888609 0.261126 -0.377079
			-0.140521 0.796145 0.588563
			-0.468480 0.557281 0.685540
			0.148229 0.883379 0.444599
			0.437308 0.847320 0.301348
			0.711005 0.682565 0.169044
			0.911135 0.408957 0.050845
			-0.623882 -0.744877 -0.236494
			-0.254836 -0.775323 -0.577870
			0.187709 -0.715697 -0.672713
			0.556968 -0.471317 -0.683848
			-0.739266 0.219278 0.636712
			-0.829466 -0.214087 0.515900
			-0.748588 -0.614363 0.249348
			-0.536939 -0.830276 -0.149459
			0.902101 -0.275352 -0.332257
			0.985620 0.072997 -0.152395
			0.155578 0.725779 0.670105
			-0.156405 0.572877 0.804581
			-0.377494 0.295188 0.877704
			0.409200 0.717589 0.563580
			0.681273 0.584304 0.440971
			0.868581 0.343994 0.356700
			0.971054 0.007563 0.238739
			-0.219670 -0.869563 -0.442273
			0.277242 -0.707669 -0.649878
			0.629329 -0.571642 -0.526470
			-0.638099 0.019490 0.769707
			-0.606536 -0.497809 0.619919
			-0.419042 -0.845054 0.332095
			-0.290201 -0.951240 0.104525
			0.775445 -0.613398 -0.149759
			0.949605 -0.312349 0.026250
			0.043762 0.361126 0.931490
			0.332885 0.304211 0.892548
			-0.169144 0.137306 0.975980
			-0.421233 -0.220917 0.879635
			0.482946 0.244516 0.840818
			0.733673 0.214342 0.644811
			0.906912 -0.013800 0.421093
			0.911909 -0.348244 0.217138
			-0.187354 -0.982265 0.007354
			0.071267 -0.990226 -0.119889
			0.395864 -0.888146 -0.233429
			-0.563108 -0.686539 0.459971
			-0.403849 -0.909328 0.100147
			-0.216084 -0.975375 0.044182
			0.668262 -0.740534 0.070973
			-0.054595 0.207058 0.976805
			0.210828 0.365731 0.906528
			-0.546434 -0.063698 0.835077
			-0.823490 -0.396135 0.406129
			0.492782 0.466458 0.734564
			0.915877 0.208394 0.343135
			0.977513 -0.193260 -0.084376
			0.023984 -0.998263 -0.053803
			0.323885 -0.945738 -0.026063
			-0.721456 -0.654160 -0.227104
			-0.200603 -0.842128 -0.500579
			0.814845 -0.517302 -0.261585
			-0.398047 0.648301 0.649049
			-0.718279 0.240605 0.652827
			0.205937 0.927394 0.312298
			-0.927218 -0.051127 0.371015
			-0.973031 -0.192038 -0.127795
			0.694585 0.717155 -0.056921
			0.877126 0.187824 -0.442010
			0.843630 -0.198466 -0.498899
			0.432417 -0.747816 -0.503773
			-0.533914 -0.452709 -0.714137
			0.138673 -0.485831 -0.862982
			0.715891 -0.311033 -0.625107
			-0.150829 0.987879 0.036696
			-0.644633 0.677232 0.354691
			-0.804428 0.300473 0.512455
			-0.891956 0.184618 0.412711
			0.415081 0.851656 -0.319983
			-0.995740 0.073970 0.055049
			-0.863363 -0.089582 -0.496569
			0.727034 0.482874 -0.488112
			0.881897 -0.127231 -0.453948
			0.838054 -0.175114 -0.516721
			0.845958 -0.289728 -0.447674
			-0.121877 -0.378115 -0.917701
			0.470449 -0.270705 -0.839878
			-0.238520 0.949417 -0.204243
			0.382463 0.837863 -0.389496
			-0.775702 0.516790 -0.362234
			-0.951415 0.306157 -0.032831
			-0.832323 0.551585 -0.054711
			-0.947693 0.318605 0.019200
			0.796306 0.524233 -0.301787
			-0.968186 0.246803 -0.041280
			-0.754656 0.193758 -0.626858
			0.968553 -0.038303 -0.245843
			0.910606 -0.202826 -0.360082
			0.909942 -0.255535 -0.326661
			0.513167 -0.309424 -0.800573
			0.848800 -0.122006 -0.514445
			-0.005609 -0.286114 -0.958179
			-0.117972 0.904032 -0.410863
			0.470537 0.874579 -0.117079
			0.938838 0.341668 -0.042952
			-0.198987 0.333799 -0.921402
			-0.451272 -0.130065 -0.882857
			-0.455375 0.324838 -0.828923
			-0.732921 0.414477 -0.539476
			-0.930055 0.320957 -0.178840
			0.991119 -0.058699 -0.119315
			-0.805922 0.554098 -0.208481
			-0.726650 0.647491 -0.229642
			-0.369105 0.293772 -0.881736
			0.945738 -0.095578 -0.310553
			0.960698 -0.180815 -0.210628
			0.959147 -0.176477 -0.221120
			0.953548 -0.131078 -0.271228
			0.079538 -0.248747 -0.965298
			0.073371 -0.157928 -0.984721
			0.471126 0.083877 -0.878069
			0.298056 0.954323 -0.020735
			0.849519 0.357215 0.388222
			0.982570 0.020803 0.184725
			-0.155615 0.897918 -0.411737
			-0.569403 0.127130 -0.812169
			-0.752892 0.102726 -0.650076
			-0.938551 0.089631 -0.333299
			-0.987895 0.070310 -0.138273
			-0.910812 0.382251 0.155905
			0.953670 -0.244765 -0.174938
			0.992737 -0.100969 -0.065407
			-0.821606 0.561258 -0.099771
			-0.715278 0.248965 -0.652988
			0.095908 -0.208986 -0.973204
			0.883929 0.130388 -0.449074
			0.982502 0.036310 -0.182677
			0.990474 -0.104096 -0.090134
			0.721391 -0.009014 -0.692469
			0.013574 -0.318571 -0.947801
			-0.232647 -0.143625 -0.961898
			-0.000492 -0.005442 -0.999985
			0.458740 0.673664 0.579425
			-0.105712 0.906941 0.407778
			0.780385 0.241539 0.576764
			0.944194 0.188479 0.270136
			-0.733094 0.580767 0.353953
			-0.986584 0.020405 0.161971
			-0.956630 -0.032436 0.289492
			-0.927035 -0.214257 0.307733
			-0.874182 -0.225381 0.430128
			-0.863274 0.026942 0.504016
			0.918600 -0.351936 0.179763
			0.983341 -0.162193 0.082060
			-0.960576 -0.205564 -0.187186
			-0.212775 -0.491766 -0.844330
			0.065139 -0.441075 -0.895103
			0.872480 0.162720 -0.460761
			0.975526 0.152756 -0.158161
			0.989017 -0.021571 0.146216
			0.441974 0.064090 -0.894735
			-0.351294 -0.266899 -0.897417
			-0.155781 -0.062286 -0.985826
			0.502526 0.430032 0.750027
			-0.000893 0.571768 0.820415
			-0.473183 0.370556 0.799241
			0.778630 0.206845 0.592411
			-0.710336 0.083701 0.698869
			-0.623315 -0.070555 0.778780
			-0.556605 -0.261404 0.788580
			-0.701235 -0.349557 0.621354
			-0.679401 -0.308065 0.665965
			-0.820212 -0.348906 0.453339
			-0.772388 -0.428433 0.468894
			0.721323 -0.403546 0.562890
			0.794521 -0.336986 0.505151
			-0.577433 -0.772422 -0.264451
			-0.286556 -0.700985 -0.653075
			0.935865 0.171309 -0.307913
			0.541220 0.137133 -0.829624
			0.993530 0.067481 0.091353
			0.735667 -0.129440 0.664860
			0.939759 0.003220 0.341822
			-0.172976 -0.035105 -0.984300
			-0.633426 -0.309779 -0.709090
			0.312790 0.189653 0.930695
			-0.092138 0.151717 0.984120
			-0.317360 0.059584 0.946431
			0.424558 -0.295981 0.855655
			-0.333200 -0.201557 0.921061
			-0.601374 -0.432174 0.671994
			-0.289963 -0.302216 0.908067
			-0.174390 -0.325601 0.929286
			-0.664339 -0.737422 0.121908
			-0.786352 -0.412672 0.459731
			0.341763 -0.383573 0.857946
			0.979942 0.164425 -0.112597
			0.561086 0.204271 -0.802156
			-0.175096 0.077452 -0.981501
			0.235842 -0.210050 0.948820
			0.562776 -0.097243 0.820870
			0.910657 0.056416 0.409294
			-0.818568 -0.146282 -0.555470
			-0.916670 -0.351361 -0.190422
			0.060105 -0.209236 0.976016
			-0.131946 -0.280837 0.950642
			-0.959297 -0.240442 0.148116
			-0.440132 -0.248324 0.862913
			0.972537 0.145747 0.181470
			0.742070 0.200684 -0.639576
			-0.381708 0.065146 -0.921984
			0.427610 -0.082440 0.900196
			0.507858 -0.058781 0.859433
			-0.981507 -0.178038 -0.070326
			-0.562500 -0.254496 0.786656
			0.919707 0.078621 0.384653
			0.858997 0.184783 -0.477473
			-0.242523 0.112054 -0.963652
			-0.980315 -0.108531 -0.164937
			0.267520 -0.147147 0.952251
			-0.698530 -0.246037 0.671955
			0.891911 0.005436 0.452180
			0.869634 0.126313 -0.477265
			-0.161537 0.096770 -0.982110
			-0.980292 -0.066945 -0.185864
			-0.775279 -0.175559 0.606731
			0.091086 -0.153497 0.983942
			0.884464 -0.018608 0.466239
			0.817097 0.116524 -0.564601
			-0.238442 0.124359 -0.963161
			-0.981328 -0.007287 -0.192206
			-0.787385 -0.120971 0.604475
			0.008554 -0.138864 0.990275
			0.868997 -0.044537 0.492808
			0.854931 0.088457 -0.511143
			-0.153749 0.124621 -0.980220
			-0.963882 0.023892 -0.265255
			-0.792485 -0.082814 0.604242
			0.004439 -0.140804 0.990028
			0.740623 -0.094735 0.665209
			0.929775 0.031544 -0.366773
			-0.030061 0.145611 -0.988884
			-0.907037 0.081749 -0.413038
			-0.857296 -0.012995 0.514661
			-0.085316 -0.098234 0.991500
			0.204556 -0.086393 0.975035
			0.902860 -0.069389 0.424297
			0.911993 0.010714 -0.410066
			0.148836 0.145126 -0.978154
			-0.750506 0.123320 -0.649255
			-0.998068 0.052881 0.032627
			-0.555025 -0.028449 0.831347
			0.041942 -0.051620 0.997785
			0.806922 -0.083522 0.584723
			0.968169 -0.017733 -0.249669
			0.327798 0.159442 -0.931197
			-0.726647 0.194331 -0.658953
			-0.983971 0.093294 -0.151978
			-0.750523 0.052035 0.658793
			-0.027620 0.090776 0.995488
			0.720383 0.000842 0.693575
			0.969073 -0.037185 -0.243955
			0.594988 0.160356 -0.787576
			-0.586659 0.386152 -0.711842
			-0.975099 0.173686 -0.137893
			-0.915073 0.199697 0.350376
			-0.566661 0.540418 0.621968
			0.249850 0.242130 0.937522
			0.894131 0.239849 0.378156
			0.954808 0.134555 -0.265023
			0.765882 0.156127 -0.623738
			-0.079915 0.539747 -0.838025
			-0.914887 0.372638 -0.155312
			-0.929742 0.360711 -0.073941
			-0.408776 0.794153 0.449691
			0.159807 0.408202 0.898795
			-0.637725 0.742072 -0.206484
			0.437980 0.198857 0.876715
			0.835096 0.175349 0.521410
			0.976148 0.098965 -0.193240
			0.975779 0.136491 -0.170954
			0.805194 0.297415 -0.513037
			0.699014 0.419877 -0.578864
			0.116530 0.693490 -0.710980
			-0.853292 0.518892 -0.051411
			-0.796623 0.603878 -0.026898
			-0.764512 0.637085 -0.098199
			-0.366641 0.688164 0.626102
			-0.523507 0.810528 -0.262647
			0.068456 0.345463 0.935932
			0.337255 0.040160 0.940556
			-0.654992 0.603285 -0.455010
			0.430696 -0.051687 0.901016
			0.914000 -0.137545 0.381688
			0.914179 -0.322741 -0.245188
			0.955499 -0.280670 0.090802
			0.996375 0.060748 -0.059549
			0.813103 0.185502 -0.551773
			0.715773 0.224889 -0.661131
			0.690666 0.011395 -0.723085
			0.340003 0.147170 -0.928837
			-0.273254 0.696980 -0.662987
			-0.610004 0.779822 -0.140614
			-0.576777 0.802091 0.154854
			-0.872713 0.488057 -0.013100
			-0.663488 0.527057 0.531031
			-0.344295 0.132901 0.929407
			-0.774531 0.631265 0.040081
			-0.577189 0.202639 -0.791069
			-0.727550 0.440556 -0.525910
			-0.047657 -0.210649 0.976399
			0.235557 -0.275940 0.931863
			-0.960821 -0.233465 -0.149385
			0.269239 -0.217120 0.938280
			0.404381 -0.184157 0.895858
			0.820879 -0.532809 0.205602
			0.732449 -0.624641 -0.270817
			0.729211 -0.660640 0.178340
			0.746330 -0.383402 0.544054
			0.962439 -0.208637 -0.173727
			0.781422 -0.028527 -0.623351
			0.756991 0.025582 -0.652924
			0.604398 -0.206803 -0.769373
			0.237848 -0.124214 -0.963327
			-0.298833 0.194416 -0.934292
			-0.475601 0.746288 -0.465681
			-0.254781 0.963816 -0.078389
			-0.286433 0.871868 0.397245
			-0.618544 0.394715 0.679414
			-0.972418 0.218788 0.080848
			-0.665344 0.047702 0.745011
			-0.304966 -0.135881 0.942620
			-0.922617 0.044326 -0.383162
			-0.523097 -0.248063 -0.815374
			-0.549329 -0.149172 -0.822183
			-0.087245 -0.155848 0.983920
			0.143595 -0.219007 0.965099
			-0.557937 -0.069603 0.826960
			-0.913044 -0.396528 0.095475
			0.228304 -0.242773 0.942836
			0.417498 -0.673850 0.609608
			0.485423 -0.863571 -0.136412
			0.360755 -0.908773 -0.209729
			0.306372 -0.836201 0.454868
			0.660160 -0.700060 0.272220
			0.751712 -0.104584 -0.651147
			0.680905 -0.141916 -0.718491
			0.524559 -0.274936 -0.805760
			0.238331 -0.258192 -0.936234
			-0.187325 -0.023060 -0.982027
			-0.700353 0.163314 -0.694862
			-0.625794 0.765931 0.147417
			-0.489761 0.346810 0.799911
			-0.865902 -0.438283 -0.241084
			-0.849136 -0.313704 0.424922
			-0.564403 -0.400668 0.721744
			-0.639405 -0.595824 -0.485958
			-0.361241 -0.534972 -0.763747
			-0.148337 -0.650226 0.745119
			0.155743 -0.674351 0.721800
			-0.626156 -0.231223 0.744623
			-0.491094 -0.230179 0.840146
			-0.458366 -0.488929 0.742192
			-0.575649 -0.771896 0.269824
			-0.389466 -0.791064 -0.471735
			0.156683 -0.971887 0.175745
			0.168405 -0.969012 -0.180712
			-0.050142 -0.971722 0.230743
			-0.070103 -0.922977 -0.378416
			0.059209 -0.838021 0.542416
			0.262879 -0.891965 0.367823
			0.627592 -0.662234 -0.409360
			0.567476 -0.130603 -0.812966
			0.441122 -0.285951 -0.850672
			0.166258 -0.271719 -0.947907
			-0.108909 -0.241779 -0.964200
			-0.771168 -0.382196 -0.509142
			-0.977720 0.080624 0.193811
			-0.419319 -0.782099 -0.460970
			-0.608117 -0.763817 -0.216284
			-0.431589 -0.902028 -0.008789
			-0.163020 -0.826862 -0.538260
			-0.098938 -0.994209 0.041964
			-0.864170 -0.465356 0.191456
			-0.563742 -0.557240 0.609655
			-0.390730 -0.684735 0.615197
			-0.297425 -0.694379 0.655268
			-0.052819 -0.975482 -0.213647
			-0.131796 -0.862297 0.488951
			0.140098 -0.986704 0.082384
			0.426012 -0.462902 -0.777326
			0.052452 -0.452698 -0.890120
			-0.432221 -0.569602 -0.699098
			-0.714441 -0.698365 -0.043131
			-0.250564 -0.919024 -0.304324
			-0.530554 -0.803691 0.269431
			-0.226328 -0.967776 0.110388
			-0.018969 -0.900940 -0.433528
			-0.383527 -0.899922 -0.207479
		</DataArray>
	</PointData>
	<Points>
		<DataArray type="Float32" NumberOfComponents="3" format="ascii">
			-0.012191 0.016249 -0.010358
			-0.011371 0.007692 -0.017017
			-0.017650 0.013279 -0.007796
			-0.006291 0.016125 -0.015002
			-0.009554 0.018877 -0.008103
			-0.000238 0.015966 -0.015813
			-0.021349 0.006291 -0.007194
			-0.020643 -0.002121 -0.011388
			-0.014169 -0.006548 -0.017530
			-0.007477 -0.000887 -0.022346
			-0.001602 0.004164 -0.021963
			-0.001499 0.012429 -0.018968
			-0.015085 0.016495 -0.005035
			-0.020773 0.010363 -0.002711
			0.005020 0.010411 -0.019598
			-0.005967 0.021308 -0.003442
			0.000639 0.019701 -0.009930
			0.006743 0.016048 -0.014191
			-0.023314 0.001715 -0.004004
			-0.020909 -0.005448 -0.009143
			-0.013628 -0.009522 -0.016729
			-0.006518 -0.006751 -0.021922
			-0.000219 -0.003108 -0.023132
			0.003623 0.001930 -0.022771
			-0.012245 0.019192 0.000191
			-0.018164 0.013950 0.002610
			-0.022709 0.005730 0.002147
			0.011514 0.009689 -0.017026
			-0.002797 0.022348 0.001388
			0.002516 0.022200 -0.001791
			0.007770 0.020082 -0.005750
			0.013553 0.015206 -0.010076
			-0.023263 -0.004399 -0.002338
			-0.019311 -0.010546 -0.008930
			-0.011938 -0.012411 -0.016261
			-0.004092 -0.010553 -0.020896
			0.004144 -0.005899 -0.022215
			0.011362 0.001342 -0.020333
			-0.008947 0.020270 0.004958
			-0.015229 0.015534 0.007847
			-0.020969 0.006679 0.008225
			-0.023147 -0.002225 0.004470
			0.014577 -0.000449 -0.018772
			0.016418 0.009162 -0.013623
			-0.005795 0.019605 0.010713
			-0.000349 0.021704 0.006800
			0.005503 0.021757 0.003642
			0.011107 0.019940 0.000521
			0.018197 0.013512 -0.003606
			-0.021315 -0.010096 -0.001911
			-0.016527 -0.014178 -0.008809
			-0.008746 -0.016388 -0.014794
			0.001060 -0.012908 -0.019573
			0.008599 -0.008721 -0.020242
			-0.011765 0.014896 0.013275
			-0.017978 0.006621 0.013327
			-0.020967 -0.003732 0.009856
			-0.020189 -0.011757 0.002506
			0.018589 -0.004367 -0.013780
			0.020997 0.005696 -0.007799
			-0.004268 0.016801 0.015411
			-0.011764 0.011200 0.016779
			0.002658 0.019490 0.011885
			0.010066 0.018861 0.008291
			0.016803 0.015084 0.005003
			0.021259 0.009620 0.002194
			-0.016073 -0.016009 -0.005918
			-0.007610 -0.018270 -0.013096
			0.003708 -0.015782 -0.016862
			0.013019 -0.010242 -0.017214
			-0.016905 0.001321 0.016108
			-0.019002 -0.007808 0.011359
			-0.019175 -0.014437 0.001082
			-0.013398 -0.017899 -0.007033
			0.022264 -0.004878 -0.005837
			0.023495 0.001825 -0.001764
			0.004945 0.016828 0.015318
			-0.001744 0.014765 0.018208
			-0.008584 0.008939 0.019851
			0.011326 0.015565 0.013630
			0.015666 0.013495 0.011427
			0.019633 0.008292 0.009623
			0.022975 -0.000378 0.005737
			-0.003155 -0.019318 -0.013103
			0.008956 -0.017412 -0.012333
			0.017040 -0.012535 -0.010562
			-0.014094 0.000763 0.019427
			-0.016772 -0.006854 0.015296
			-0.015818 -0.014041 0.006501
			-0.011614 -0.017599 -0.002165
			0.017101 -0.015554 -0.005980
			0.022429 -0.007359 0.000831
			-0.000621 0.010782 0.020939
			0.006957 0.012226 0.018505
			-0.006574 0.004045 0.021289
			-0.009504 -0.003625 0.020620
			0.013503 0.009989 0.016748
			0.018537 0.005694 0.013217
			0.020562 -0.001754 0.011676
			0.020351 -0.009257 0.006860
			-0.004907 -0.019788 -0.007194
			0.001202 -0.020501 -0.009213
			0.010330 -0.018739 -0.008703
			-0.012501 -0.012253 0.013037
			-0.009630 -0.016572 0.005141
			-0.004448 -0.019128 -0.000278
			0.017179 -0.015612 0.002206
			0.000193 -0.001319 0.021147
			0.006612 0.003803 0.018065
			-0.005223 -0.009408 0.021180
			-0.007425 -0.016722 0.015188
			0.012653 0.001468 0.016768
			0.018830 -0.002059 0.014826
			0.019406 -0.009303 0.011229
			0.001984 -0.019542 -0.002812
			0.009991 -0.018849 -0.002338
			-0.005005 -0.020660 0.009115
			0.003028 -0.021786 0.004565
			0.016759 -0.015123 0.007246
			0.006187 -0.007323 0.027461
			-0.000269 -0.015170 0.027043
			0.013577 -0.003081 0.024551
			-0.003478 -0.021184 0.021531
			-0.003944 -0.027233 0.017553
			0.020403 -0.006393 0.022191
			0.022201 -0.014049 0.020239
			0.020177 -0.021305 0.018730
			0.011929 -0.019496 0.004190
			-0.000921 -0.030086 0.013186
			0.006495 -0.030820 0.011433
			0.015970 -0.028023 0.015609
			0.015950 -0.003809 0.030909
			0.008620 -0.008844 0.031681
			0.002279 -0.017052 0.030701
			-0.001339 -0.025046 0.028096
			0.022499 -0.005939 0.029788
			-0.004495 -0.033184 0.021441
			-0.004055 -0.035639 0.017725
			0.026692 -0.010334 0.027625
			0.028266 -0.016472 0.026469
			0.020108 -0.032025 0.023383
			0.024409 -0.022463 0.026185
			0.006011 -0.038989 0.015038
			0.014433 -0.037946 0.016772
			0.019473 -0.002509 0.036464
			0.025127 -0.003920 0.034774
			0.011155 -0.007025 0.038899
			0.008984 -0.015071 0.039987
			0.003548 -0.023602 0.036881
			-0.003154 -0.033027 0.031001
			0.029660 -0.007522 0.033926
			-0.005265 -0.040066 0.025426
			-0.006619 -0.044448 0.020271
			0.030830 -0.012586 0.034203
			0.023679 -0.028440 0.030995
			0.027824 -0.019408 0.034002
			0.013922 -0.045394 0.018502
			0.019739 -0.037534 0.025451
			0.002740 -0.046123 0.018162
			0.020005 -0.000586 0.042305
			0.027258 -0.000865 0.041944
			0.030836 -0.007116 0.041099
			0.003924 -0.001667 0.041766
			0.004620 -0.010885 0.045908
			0.002279 -0.020288 0.045441
			-0.003001 -0.027359 0.041515
			-0.004446 -0.035113 0.037454
			0.030321 -0.016586 0.040946
			-0.006747 -0.043109 0.030525
			-0.008527 -0.047499 0.025798
			-0.010615 -0.050377 0.019503
			0.024506 -0.033175 0.036990
			0.026756 -0.025991 0.039934
			0.019885 -0.047537 0.026435
			0.021894 -0.040207 0.031679
			-0.003352 -0.052402 0.020952
			0.008728 -0.053581 0.019397
			0.016579 -0.051286 0.020816
			0.022874 0.000384 0.045915
			0.030296 -0.008912 0.045554
			0.029722 -0.019029 0.044514
			0.005350 0.001529 0.043462
			-0.003539 -0.002198 0.043825
			-0.004132 -0.016396 0.047492
			-0.006763 -0.027193 0.045450
			-0.007171 -0.037520 0.042971
			-0.009608 -0.045095 0.035570
			0.024866 -0.036531 0.042476
			0.028630 -0.028868 0.045288
			-0.015629 -0.050149 0.027449
			-0.016169 -0.053521 0.021261
			-0.010935 -0.055760 0.018893
			0.019606 -0.053838 0.025411
			0.021797 -0.049910 0.032194
			0.023531 -0.043344 0.038164
			0.015956 -0.056632 0.020397
			-0.004811 -0.056972 0.022281
			0.003280 -0.058067 0.021663
			0.009091 -0.058574 0.019879
			0.022213 -0.001490 0.051011
			0.007132 0.001131 0.049999
			0.027182 -0.010699 0.051507
			0.028612 -0.019954 0.051896
			-0.003762 -0.001061 0.049092
			-0.005922 -0.017302 0.051243
			-0.007360 -0.026708 0.051924
			-0.007136 -0.036133 0.050989
			-0.005827 -0.047147 0.042156
			-0.015582 -0.053610 0.031115
			0.024295 -0.037972 0.048860
			0.028853 -0.030100 0.051443
			-0.016919 -0.056835 0.023693
			-0.011477 -0.059496 0.020423
			-0.003463 -0.061094 0.024226
			0.021024 -0.059920 0.026797
			0.023242 -0.054441 0.035991
			0.022599 -0.048723 0.044000
			0.018136 -0.062742 0.021376
			0.003727 -0.063738 0.022224
			0.011327 -0.064376 0.019524
			0.020617 -0.005983 0.054556
			0.006367 -0.003633 0.057328
			-0.001408 -0.007215 0.054906
			0.027043 -0.018084 0.057478
			-0.002093 -0.015310 0.056560
			-0.001738 -0.026177 0.057858
			-0.000917 -0.034851 0.056412
			-0.002188 -0.051667 0.049329
			-0.005789 -0.058757 0.037766
			-0.000682 -0.061844 0.043265
			-0.014653 -0.060415 0.031362
			0.021304 -0.039424 0.053054
			0.028039 -0.029380 0.056381
			-0.014847 -0.062049 0.024289
			-0.003183 -0.066033 0.026773
			0.023254 -0.067201 0.029889
			0.018431 -0.069216 0.021179
			0.022976 -0.065462 0.039156
			0.020864 -0.047836 0.050216
			0.022067 -0.064307 0.045156
			0.009935 -0.070301 0.020155
			0.002421 -0.068743 0.023826
			0.021052 -0.018831 0.060546
			0.011595 -0.017200 0.062504
			0.004895 -0.019199 0.060955
			0.021074 -0.032225 0.059471
			0.005805 -0.028578 0.061365
			0.003182 -0.063076 0.049693
			0.003797 -0.054934 0.053289
			0.004776 -0.041693 0.057335
			-0.005374 -0.066002 0.033626
			0.002671 -0.073187 0.042333
			0.014858 -0.042835 0.055598
			0.024998 -0.083414 0.026648
			0.021047 -0.083414 0.020359
			0.013158 -0.084573 0.019274
			0.014021 -0.053013 0.052920
			0.017844 -0.065224 0.049944
			0.023359 -0.083305 0.039479
			0.005911 -0.085186 0.024627
			0.003638 -0.076417 0.026156
			0.013784 -0.031288 0.061737
			0.009811 -0.064257 0.051475
			0.004362 -0.088350 0.034426
			0.011291 -0.086157 0.047667
			0.028838 -0.114743 0.032656
			0.026275 -0.107347 0.020447
			0.016062 -0.113007 0.015485
			0.018770 -0.085334 0.047940
			0.020933 -0.115449 0.044140
			0.007786 -0.114730 0.027993
			0.013952 -0.116932 0.043966
			0.032254 -0.145764 0.031614
			0.032274 -0.143353 0.019063
			0.019269 -0.143528 0.010956
			0.012093 -0.146576 0.022166
			0.024663 -0.147796 0.038292
			0.016003 -0.149026 0.036053
			0.035000 -0.178401 0.028847
			0.035166 -0.175554 0.017306
			0.022671 -0.175162 0.008199
			0.014405 -0.175151 0.018740
			0.017649 -0.177528 0.030258
			0.026217 -0.176914 0.034811
			0.035320 -0.206374 0.026913
			0.034450 -0.204443 0.012192
			0.021393 -0.204587 0.007521
			0.015422 -0.206800 0.015922
			0.018516 -0.208076 0.027222
			0.026538 -0.207960 0.031915
			0.035613 -0.241751 0.023778
			0.035172 -0.239962 0.010521
			0.023301 -0.238952 0.004111
			0.015426 -0.239368 0.011815
			0.017645 -0.242416 0.023553
			0.026831 -0.242579 0.028709
			0.035118 -0.274641 0.020043
			0.035351 -0.273026 0.008772
			0.023613 -0.270831 0.001103
			0.014223 -0.272479 0.009039
			0.016767 -0.275061 0.022048
			0.025494 -0.276413 0.025672
			0.023672 -0.307083 0.023663
			0.030881 -0.306786 0.020629
			0.033182 -0.305174 0.005586
			0.024972 -0.303786 -0.002310
			0.016072 -0.303605 0.001850
			0.011607 -0.304867 0.011439
			0.015400 -0.306907 0.021703
			0.019919 -0.340184 0.022699
			0.030351 -0.340585 0.018948
			0.031845 -0.341299 0.004619
			0.022453 -0.338525 -0.006400
			0.013268 -0.337084 -0.002685
			0.009714 -0.337793 0.007924
			0.010573 -0.339171 0.019607
			0.016037 -0.367059 0.023655
			0.029684 -0.369993 0.017047
			0.027983 -0.368313 0.000752
			0.022541 -0.365258 -0.009492
			0.011597 -0.362424 -0.010535
			0.006844 -0.367552 0.006262
			0.006528 -0.366642 0.020614
			0.001774 -0.379953 0.023541
			0.014696 -0.381437 0.025463
			0.028621 -0.386524 0.020121
			0.027294 -0.384931 -0.001148
			0.019025 -0.378024 -0.014328
			0.008800 -0.375358 -0.018206
			0.005402 -0.377939 -0.008992
			0.004614 -0.380700 0.003615
			-0.003840 -0.386908 0.029356
			0.010725 -0.394172 0.031707
			-0.002024 -0.386950 0.015198
			0.021439 -0.397334 0.028659
			0.033583 -0.397236 0.020821
			0.030930 -0.395803 0.008156
			0.028802 -0.395923 -0.002105
			0.024321 -0.391159 -0.013442
			0.017668 -0.388099 -0.020850
			0.003142 -0.387986 -0.032962
			0.007740 -0.382211 -0.023298
			0.001555 -0.386063 -0.012950
			0.001373 -0.387863 0.000770
			-0.010606 -0.391566 0.030149
			-0.011461 -0.390087 0.015453
			0.000963 -0.398518 0.036678
			0.008724 -0.402182 0.034577
			-0.008651 -0.392127 0.010034
			0.019631 -0.404484 0.029657
			0.033369 -0.405952 0.021539
			0.030441 -0.405345 0.009008
			0.027710 -0.406431 0.000074
			0.030368 -0.405352 -0.007612
			0.023240 -0.399990 -0.017906
			0.016000 -0.394771 -0.027416
			0.014555 -0.402297 -0.029965
			0.008478 -0.397918 -0.036489
			-0.000547 -0.394027 -0.036912
			-0.004058 -0.391301 -0.025250
			-0.004631 -0.392524 -0.015805
			-0.004364 -0.394464 -0.001182
			-0.018282 -0.397000 0.028814
			-0.011455 -0.402755 0.036049
			-0.019601 -0.395546 0.023261
			-0.013237 -0.400649 0.007261
			-0.018743 -0.397443 0.013181
			-0.004037 -0.406224 0.037721
			0.005800 -0.408443 0.034711
			-0.004619 -0.400066 -0.000826
			0.015177 -0.411899 0.030279
			0.022203 -0.413354 0.028353
			0.028769 -0.414204 0.023201
			0.027356 -0.413645 0.011322
			0.023067 -0.412977 0.000657
			0.027315 -0.413810 -0.005450
			0.030957 -0.414385 -0.009536
			0.027337 -0.410568 -0.015810
			0.022087 -0.407738 -0.020952
			0.012560 -0.409421 -0.030366
			0.003811 -0.402633 -0.037744
			-0.010548 -0.397554 -0.035164
			-0.018680 -0.394122 -0.026734
			-0.006852 -0.393543 -0.027596
			-0.013017 -0.392955 -0.017890
			-0.010702 -0.398362 -0.012126
			-0.024385 -0.404414 0.024304
			-0.023146 -0.406220 0.030714
			-0.014761 -0.410292 0.031320
			-0.022663 -0.405472 0.014939
			-0.005189 -0.408388 0.006914
			-0.018659 -0.408765 0.009576
			-0.008847 -0.413578 0.032976
			0.000660 -0.416642 0.032568
			-0.003482 -0.408863 -0.008739
			0.001673 -0.410554 -0.001209
			0.014148 -0.417720 0.029233
			0.020379 -0.421304 0.026558
			0.020248 -0.421241 0.015299
			0.016804 -0.417887 0.005160
			0.018397 -0.418868 -0.003277
			0.026768 -0.421107 -0.010586
			0.025159 -0.417231 -0.017982
			0.019195 -0.413299 -0.022324
			0.010352 -0.414317 -0.030591
			-0.000015 -0.411863 -0.035796
			-0.010264 -0.409211 -0.036016
			-0.023301 -0.408518 -0.032903
			-0.020552 -0.395822 -0.019716
			-0.019364 -0.403336 -0.012239
			-0.024098 -0.410552 0.020418
			-0.023609 -0.412954 0.028749
			-0.018396 -0.417224 0.032377
			-0.017421 -0.415397 0.013060
			-0.007891 -0.416280 0.008199
			-0.010452 -0.422335 0.032807
			0.002901 -0.423059 0.030629
			-0.020747 -0.409831 -0.013634
			-0.015583 -0.415554 -0.013693
			-0.006745 -0.422000 -0.013364
			0.004844 -0.416357 -0.000451
			0.004747 -0.417706 0.006331
			0.010880 -0.423568 0.026573
			0.011632 -0.424598 0.018584
			0.010714 -0.418415 0.000533
			0.009920 -0.421177 0.009963
			0.011775 -0.421603 -0.004574
			0.017125 -0.425625 -0.011968
			0.020106 -0.425175 -0.021224
			0.014970 -0.418886 -0.025150
			0.007482 -0.420808 -0.029173
			0.001055 -0.417849 -0.033894
			-0.009916 -0.415455 -0.035474
			-0.020447 -0.414476 -0.033268
			-0.025000 -0.403513 -0.020054
			-0.011972 -0.418955 0.013388
			-0.016937 -0.419300 0.019073
			-0.014351 -0.421751 0.025026
			-0.001260 -0.420783 0.011531
			-0.003627 -0.424534 0.023909
			-0.023301 -0.415806 -0.022562
			-0.016638 -0.420793 -0.017945
			-0.005867 -0.426428 -0.015609
			0.003993 -0.421652 -0.006894
			0.003492 -0.424559 0.017902
			0.002443 -0.429172 -0.015078
			0.007164 -0.430363 -0.020446
			0.010083 -0.428067 -0.027279
			-0.006248 -0.425121 -0.033764
			-0.015745 -0.422695 -0.031153
			-0.017943 -0.422181 -0.024000
			-0.007184 -0.422840 0.017588
			-0.010986 -0.426908 -0.020780
			-0.003580 -0.429494 -0.020356
			-0.000421 -0.428210 -0.031026
			-0.010037 -0.427177 -0.027022
		</DataArray>
	</Points>
			<Polys>
				<DataArray type="Int32" Name="connectivity" format="ascii">
					0 1 2 
					3 1 0 
					2 4 0 
					0 5 3 
					0 4 5 
					2 1 6 
					6 1 7 
					7 1 8 
					8 1 9 
					9 1 10 
					10 1 11 
					11 1 3 
					2 12 4 
					2 13 12 
					6 13 2 
					3 14 11 
					3 5 14 
					12 15 4 
					4 16 5 
					4 15 16 
					5 17 14 
					5 16 17 
					6 18 13 
					7 18 6 
					7 19 18 
					8 19 7 
					8 20 19 
					9 20 8 
					9 21 20 
					10 21 9 
					10 22 21 
					10 23 22 
					11 23 10 
					11 14 23 
					12 24 15 
					13 24 12 
					13 25 24 
					13 26 25 
					18 26 13 
					14 27 23 
					14 17 27 
					24 28 15 
					15 29 16 
					15 28 29 
					16 30 17 
					16 29 30 