<?xml version="1.0"?>
<VTKFile type="PolyData" version="0.1" byte_order="LittleEndian" compressor="vtkZLibDataCompressor">
	<PolyData>
		<Piece NumberOfPoints="186" NumberOfVerts="0" NumberOfLines="0" NumberOfStrips="0" NumberOfPolys="390">
		<PointData Normals="Normals">
		<DataArray type="Float32" Name="Normals" NumberOfComponents="3" format="ascii">
			0.896622 -0.403374 -0.182643
			-0.107404 -0.764993 -0.635020
			0.373133 -0.899192 0.228528
			-0.930115 0.315155 -0.188580
			0.996410 0.026061 0.080550
			0.239938 0.773482 -0.586647
			0.451611 -0.625328 -0.636406
			0.000785 -0.993138 -0.116950
			0.954556 0.093940 -0.282842
			-0.403271 0.159050 -0.901153
			-0.282602 0.150068 -0.947426
			-0.708552 -0.536988 -0.457820
			0.179328 -0.971058 -0.157756
			0.296839 -0.044197 -0.953904
			0.258915 0.280721 -0.924207
			-0.149441 -0.927814 -0.341801
			-0.250670 -0.967686 -0.027369
			-0.546858 -0.234638 -0.803674
			0.433340 0.171035 0.884852
			-0.826730 0.561028 -0.042020
			-0.438756 0.898606 -0.000553
			0.925965 -0.041926 0.375276
			0.854928 0.041967 -0.517046
			0.790852 0.381118 -0.478855
			-0.927756 0.283085 -0.243172
			0.157813 -0.500367 -0.851309
			0.672178 -0.404950 -0.619832
			0.949601 -0.119493 0.289792
			-0.792066 0.380616 -0.477246
			-0.655327 0.130371 -0.744009
			-0.010147 0.119440 -0.992790
			-0.886396 0.427493 -0.177630
			-0.348855 -0.937148 0.007302
			-0.901803 -0.416961 0.113556
			0.082265 -0.995319 0.050713
			-0.102971 -0.597584 0.795167
			-0.551448 -0.001541 -0.834208
			0.295920 0.080102 0.951848
			-0.733717 0.605932 0.307417
			0.457748 -0.001640 0.889081
			0.743763 -0.080146 -0.663621
			0.977109 -0.099313 0.188137
			0.236819 -0.175297 -0.955609
			0.607522 -0.436293 -0.663751
			-0.952839 0.286221 0.100868
			-0.718308 0.694540 -0.040607
			0.860108 -0.213650 -0.463214
			0.972864 -0.104814 0.206274
			-0.902034 0.431380 0.015663
			-0.634048 0.145470 -0.759488
			-0.260329 0.039723 -0.964702
			-0.842879 0.077347 -0.532515
			-0.725999 -0.681254 -0.093910
			-0.364244 -0.773535 0.518624
			-0.240493 0.528696 -0.814029
			0.069391 0.025694 0.997259
			0.060002 0.991661 -0.114055
			0.219715 -0.024954 0.975245
			0.624782 -0.041296 0.779706
			0.455289 -0.047703 -0.889065
			0.939847 -0.062967 -0.335742
			0.136323 0.374414 -0.917186
			-0.382216 -0.239227 -0.892570
			0.408841 -0.096015 -0.907541
			0.540840 -0.025089 0.840752
			-0.368079 0.033773 -0.929181
			0.409796 -0.087577 -0.907963
			-0.829682 -0.547746 0.107711
			-0.245546 0.308401 -0.919019
			-0.598411 0.025073 0.800797
			-0.439373 -0.016408 0.898155
			0.312800 -0.045938 0.948708
			0.683207 -0.045969 0.728776
			0.181814 -0.010357 -0.983279
			0.999239 -0.038981 -0.001344
			0.283291 0.003607 -0.959027
			-0.240695 0.030003 0.970137
			0.258562 0.014077 -0.965892
			-0.982780 -0.002126 0.184768
			-0.005682 -0.026410 0.999636
			-0.739037 -0.023643 0.673250
			0.510233 -0.012150 0.859950
			0.722815 -0.018550 0.690792
			-0.125005 0.030765 -0.991679
			0.905239 -0.014302 -0.424662
			0.005491 0.025391 -0.999662
			-0.738023 0.041800 -0.673479
			-0.998353 -0.030811 -0.048400
			0.344182 -0.008249 0.938867
			-0.479400 -0.064341 0.875234
			-0.988745 -0.075462 0.129187
			0.572446 -0.012909 0.819841
			0.889233 -0.015234 0.457202
			-0.563070 0.008119 -0.826370
			0.628730 -0.022218 -0.777306
			-0.042325 -0.069547 -0.996680
			-0.714901 -0.097891 -0.692340
			0.432518 -0.071961 0.898749
			-0.339064 -0.162085 0.926696
			-0.967932 -0.155929 0.196960
			-0.911849 -0.077320 -0.403178
			0.743557 -0.112309 0.659174
			0.807505 -0.149572 -0.570581
			0.163619 -0.134227 -0.977349
			-0.530166 -0.149260 -0.834653
			-0.120246 -0.207625 0.970790
			0.471526 -0.157613 0.867653
			0.484503 -0.136801 0.864026
			-0.841173 -0.524484 0.131699
			-0.933484 -0.140082 -0.330128
			0.980328 -0.093774 0.173676
			0.592656 -0.126214 0.795505
			0.201302 -0.220755 -0.954330
			0.337359 -0.226705 -0.913671
			0.778104 -0.110897 -0.618269
			-0.316950 -0.396826 -0.861436
			0.108828 -0.368505 -0.923234
			-0.820365 -0.367790 -0.437872
			0.038095 -0.446627 0.893909
			0.534466 -0.134082 0.834487
			0.668273 -0.065970 0.740985
			-0.738738 -0.633756 -0.229387
			-0.915517 -0.399191 -0.049744
			-0.808469 -0.588297 -0.016877
			-0.790882 -0.561621 0.243078
			-0.456864 -0.566214 0.686060
			0.867894 -0.028892 -0.495909
			0.972147 0.220410 0.079686
			0.702848 -0.146906 -0.696005
			-0.613468 -0.737086 -0.283481
			-0.141609 -0.650322 -0.746343
			0.425471 -0.131468 -0.895372
			0.411476 -0.361183 0.836800
			0.782285 -0.137767 0.607496
			0.355546 0.927593 0.114707
			0.195632 0.979978 0.037033
			0.955701 0.216963 0.198907
			-0.884595 0.466301 -0.007401
			-0.878534 0.472484 0.070252
			-0.927835 0.369909 -0.047848
			-0.742223 -0.536622 -0.401423
			-0.902461 0.395563 0.170571
			-0.914562 0.274205 -0.297300
			-0.878044 0.478511 0.008072
			-0.720122 0.152032 0.676986
			-0.820360 0.437150 0.368659
			0.103244 0.318095 0.942421
			-0.327583 0.686836 0.648803
			0.936241 0.266221 -0.229300
			0.912668 0.314736 -0.260725
			-0.177036 -0.278883 -0.943866
			0.208399 0.188433 -0.959720
			0.596415 0.731675 -0.330062
			0.689497 0.014430 0.724146
			0.736921 0.654312 0.169774
			0.144009 0.963291 -0.226564
			0.022987 0.999712 -0.006842
			0.071744 0.982768 -0.170355
			0.387635 0.921402 -0.027511
			0.205571 0.978525 -0.015170
			0.388156 0.917921 -0.082198
			0.221293 0.972770 0.068908
			-0.408038 0.897046 -0.169744
			-0.597561 0.800215 -0.050767
			-0.833164 0.433153 -0.343827
			-0.730313 -0.163229 -0.663325
			-0.551237 0.804931 0.219601
			-0.772600 0.579417 0.259547
			-0.428809 0.787885 -0.441995
			-0.299199 0.954002 -0.018976
			-0.175637 0.960609 0.215364
			-0.283483 0.905418 0.315999
			0.231004 0.805876 0.545162
			0.705497 0.701193 -0.102967
			-0.205698 0.878784 -0.430613
			-0.506279 0.686210 -0.522300
			0.150762 0.929204 -0.337418
			0.251665 0.963302 0.093346
			0.264400 0.876784 0.401674
			0.304282 0.935014 0.182101
			0.094317 0.992142 0.082212
			-0.201495 0.967734 0.151294
			0.190978 0.965243 -0.178418
			-0.173397 0.971681 -0.160530
			0.041766 0.998706 0.029016
			0.111404 0.966093 0.232925
		</DataArray>
	</PointData>
	<Points>
		<DataArray type="Float32" NumberOfComponents="3" format="ascii">
			0.010713 -0.363436 0.003075
			-0.005843 -0.378615 -0.015544
			0.006881 -0.361501 0.015052
			0.010401 -0.374283 0.012042
			0.010985 -0.347760 0.001746
			0.010357 -0.377819 0.002037
			-0.007769 -0.360418 0.014398
			0.000771 -0.379841 -0.014603
			0.008983 -0.361470 -0.009352
			-0.004033 -0.360930 -0.013242
			-0.018004 -0.371674 -0.017147
			-0.021791 -0.382030 -0.013348
			-0.008591 -0.380779 -0.008347
			0.006281 -0.374491 -0.022254
			0.002732 -0.361650 -0.017760
			0.008756 -0.383591 -0.017125
			-0.002937 -0.381091 -0.000114
			0.003975 -0.372391 0.020972
			0.006261 -0.347739 0.011214
			0.002288 -0.383661 0.017340
			0.002218 -0.382844 0.009608
			0.012738 -0.311245 0.002190
			0.007689 -0.348052 -0.009676
			0.012141 -0.377988 -0.013744
			0.005933 -0.384506 -0.000336
			-0.007003 -0.371453 0.021638
			-0.013647 -0.358241 0.009150
			-0.005171 -0.346804 0.010766
			-0.011567 -0.359259 -0.007967
			-0.005493 -0.346808 -0.009703
			0.001356 -0.347149 -0.013897
			-0.021562 -0.375295 -0.014670
			-0.021715 -0.383380 -0.007706
			-0.022092 -0.382377 -0.000441
			-0.011976 -0.382237 0.000145
			-0.004610 -0.380338 0.010081
			0.000499 -0.381353 0.026600
			0.008298 -0.310616 0.005337
			0.000397 -0.391664 0.018511
			0.012591 -0.272811 0.001145
			0.010874 -0.309975 -0.009067
			0.019247 -0.273492 -0.003095
			-0.008977 -0.380620 0.025084
			-0.016082 -0.368215 0.016854
			-0.019718 -0.370062 0.003796
			-0.014030 -0.358486 -0.000800
			-0.011677 -0.346820 0.006959
			-0.000430 -0.309802 0.006409
			-0.020821 -0.370421 -0.005093
			-0.010352 -0.346302 -0.003667
			0.000624 -0.310279 -0.013160
			-0.004778 -0.310454 -0.005938
			-0.020492 -0.381415 0.007310
			-0.011832 -0.389712 0.014539
			-0.002642 -0.388819 0.025176
			0.004367 -0.271875 0.003930
			-0.007280 -0.393971 0.016956
			0.008720 -0.235310 0.003197
			0.017729 -0.235724 -0.001045
			0.014180 -0.273405 -0.010317
			0.021948 -0.236235 -0.008200
			-0.006884 -0.389673 0.025401
			-0.016796 -0.378822 0.021182
			-0.007554 -0.309708 0.002852
			-0.003684 -0.272642 0.002096
			0.001822 -0.277144 -0.011219
			-0.002608 -0.274020 -0.006706
			-0.020020 -0.386008 0.014560
			-0.012511 -0.389067 0.024376
			0.000739 -0.234927 0.003823
			0.002384 -0.201111 0.003762
			0.011200 -0.200371 0.004086
			0.019022 -0.201650 -0.000675
			0.013950 -0.237066 -0.011795
			0.024340 -0.202025 -0.007423
			0.015878 -0.201693 -0.011707
			-0.001062 -0.234240 -0.004013
			0.006063 -0.235506 -0.012221
			-0.000930 -0.201309 -0.002844
			0.007331 -0.162860 0.006274
			0.000791 -0.163112 0.002203
			0.013413 -0.163501 0.003389
			0.019045 -0.163802 -0.000477
			0.006527 -0.201444 -0.012357
			0.024321 -0.164268 -0.009604
			0.012649 -0.162391 -0.012199
			0.002067 -0.201942 -0.011000
			-0.001954 -0.161544 -0.001398
			0.009494 -0.127426 0.005133
			0.003510 -0.128390 0.006328
			-0.004017 -0.126103 -0.003424
			0.015997 -0.127031 0.000884
			0.023557 -0.127245 -0.004833
			0.000315 -0.162442 -0.007688
			0.024273 -0.126254 -0.009596
			0.011642 -0.125652 -0.012463
			-0.000581 -0.126255 -0.010146
			0.008602 -0.086546 0.006425
			-0.002122 -0.087399 0.007711
			-0.007725 -0.087060 0.000468
			-0.005259 -0.087861 -0.010026
			0.021557 -0.086484 -0.002573
			0.023498 -0.087027 -0.012913
			0.008985 -0.087075 -0.016857
			-0.000501 -0.087303 -0.016964
			-0.002535 -0.072884 0.011237
			0.010146 -0.060527 0.007695
			0.015357 -0.072087 0.001938
			-0.013386 -0.059754 0.004453
			-0.007738 -0.072367 -0.007087
			0.028258 -0.066578 -0.006088
			0.024168 -0.069170 -0.000844
			0.015221 -0.076048 -0.016748
			0.018042 -0.068571 -0.018767
			0.025300 -0.068999 -0.014409
			-0.002512 -0.058263 -0.022021
			0.012216 -0.055770 -0.023056
			-0.007549 -0.058651 -0.018167
			-0.003585 -0.062354 0.013721
			0.007876 -0.050922 0.011051
			0.020600 -0.058850 0.002182
			-0.016508 -0.046399 -0.013121
			-0.024553 -0.039599 -0.013394
			-0.024681 -0.047352 0.005128
			-0.023313 -0.047520 0.012221
			-0.016861 -0.049644 0.021082
			0.026241 -0.059978 -0.014755
			0.028039 -0.055113 -0.008872
			0.021763 -0.052754 -0.023048
			-0.014037 -0.047665 -0.021071
			-0.009933 -0.045080 -0.030849
			0.011534 -0.036497 -0.035332
			-0.007131 -0.048463 0.024226
			0.018359 -0.041654 0.007276
			-0.005757 -0.020983 -0.007729
			0.003893 -0.022903 -0.013243
			0.021868 -0.045672 -0.001998
			-0.025573 -0.029804 -0.014698
			-0.024239 -0.026755 -0.010401
			-0.026446 -0.031321 -0.022013
			-0.024483 -0.042262 -0.026716
			-0.022120 -0.028325 -0.004041
			-0.029711 -0.039725 -0.000429
			-0.030509 -0.031001 0.014305
			-0.025459 -0.032661 0.026278
			-0.030182 -0.032299 0.019945
			-0.005822 -0.027221 0.030452
			-0.018646 -0.031483 0.029811
			0.023136 -0.050659 -0.017178
			0.018916 -0.031780 -0.024735
			-0.013969 -0.036723 -0.037697
			0.000708 -0.028391 -0.038227
			0.013024 -0.024951 -0.027918
			0.010798 -0.033646 0.018648
			0.016827 -0.023963 0.005868
			-0.000755 -0.022569 -0.000882
			-0.003082 -0.023207 -0.020377
			-0.011079 -0.017999 -0.006441
			-0.006786 -0.021303 -0.000001
			0.010685 -0.021791 0.004321
			0.015300 -0.025327 -0.008808
			0.008629 -0.023806 -0.019850
			-0.015147 -0.025531 -0.021839
			-0.019363 -0.021936 -0.007815
			-0.024583 -0.030119 -0.028613
			-0.020235 -0.035128 -0.034488
			-0.017299 -0.026964 0.009084
			-0.018428 -0.021573 0.001940
			-0.027064 -0.032244 0.006347
			-0.024847 -0.029841 0.010745
			-0.018486 -0.029831 0.015280
			-0.007947 -0.028057 0.016563
			0.000203 -0.025650 0.025418
			0.016218 -0.026898 -0.015603
			-0.006692 -0.022541 -0.034647
			-0.018662 -0.027247 -0.035332
			0.000126 -0.020941 -0.032440
			0.008107 -0.022269 -0.025639
			0.006645 -0.023226 0.019318
			0.010440 -0.023133 0.009573
			-0.004163 -0.018622 0.005878
			-0.012807 -0.018280 0.003781
			0.002777 -0.021066 0.005157
			-0.009971 -0.024319 -0.021541
			-0.011936 -0.017938 -0.002187
			0.004701 -0.021305 0.012463
		</DataArray>
	</Points>
			<Polys>
				<DataArray type="Int32" Name="connectivity" format="ascii">
					2 1 0 
					0 2 3 
					2 0 4 
					5 0 3 
					0 6 5 
					5 6 0 
					0 5 7 
					5 8 0 
					0 8 4 
					1 10 9 
					12 11 1 
					11 10 1 
					14 13 1 
					13 15 1 
					7 1 15 
					1 7 16 
					12 1 16 
					1 9 14 
					2 17 3 
					6 17 2 
					6 2 18 
					18 2 4 
					19 20 3 
					17 19 3 
					20 5 3 
					3 16 20 
					18 4 21 
					4 8 22 
					4 22 21 
					15 23 5 
					24 5 20 
					5 23 8 
					23 5 24 
					6 25 17 
					26 25 6 
					26 6 27 
					27 6 18 
					16 7 15 
					23 14 8 
					8 14 22 
					28 9 10 
					10 28 9 
					9 28 29 
					30 14 9 
					30 9 29 
					28 10 31 
					11 31 10 
					31 10 11 
					12 32 11 
					32 11 12 
					31 11 33 
					32 33 11 
					12 34 32 
					34 12 16 
					23 13 14 
					13 23 15 
					22 14 30 
					15 24 16 
					24 15 23 
					35 34 16 
					24 35 16 
					36 19 17 
					25 36 17 
					27 18 37 
					37 18 21 
					19 35 20 
					19 36 38 
					38 35 19 
					24 20 35 
					39 37 21 
					21 22 40 
					39 21 41 
					41 21 40 
					22 30 40 
					25 42 36 
					43 42 25 
					26 43 25 
					43 26 44 
					26 44 45 
					45 44 26 
					46 26 27 
					45 26 46 
					46 27 47 
					47 27 37 
					28 31 48 
					48 45 28 
					28 48 45 
					29 28 49 
					28 45 49 
					30 29 50 
					50 29 51 
					29 49 51 
					40 30 50 
					33 48 31 
					33 48 31 
					34 33 32 
					33 34 52 
					48 33 44 
					33 52 44 
					34 35 52 
					53 52 35 
					35 38 53 
					36 54 38 
					42 54 36 
					55 47 37 
					55 37 39 
					56 53 38 
					38 54 56 
					57 55 39 
					57 39 58 
					58 39 41 
					41 40 59 
					59 40 50 
					58 41 60 
					60 41 59 
					42 61 54 
					62 61 42 
					43 62 42 
					44 62 43 
					48 44 45 
					48 44 45 
					52 62 44 
					49 45 46 
					49 46 63 
					63 46 47 
					64 63 47 
					64 47 55 
					51 49 63 
					59 50 65 
					65 50 51 
					65 51 66 
					66 51 63 
					67 52 53 
					52 67 62 
					68 53 56 
					53 68 67 
					54 61 56 
					69 64 55 
					69 55 57 
					61 68 56 
					70 69 57 
					70 57 71 
					71 57 58 
					71 58 72 
					72 58 60 
					60 59 73 
					73 59 65 
					72 60 74 
					74 60 75 
					75 60 73 
					62 68 61 
					68 62 67 
					66 63 64 
					76 66 64 
					76 64 69 
					73 65 77 
					77 65 66 
					77 66 76 
					78 76 69 
					78 69 70 
					79 70 71 
					80 78 70 
					80 70 79 
					79 71 81 
					81 71 72 
					81 72 82 
					82 72 74 
					75 73 83 
					83 73 77 
					82 74 84 
					84 74 75 
					84 75 85 
					85 75 83 
					86 77 76 
					86 76 78 
					83 77 86 
					87 86 78 
					87 78 80 
					88 79 81 
					89 80 79 
					89 79 88 
					90 87 80 
					90 80 89 
					88 81 91 
					91 81 82 
					91 82 92 
					92 82 84 
					93 83 86 
					85 83 93 
					92 84 94 
					94 84 85 
					94 85 95 
					95 85 93 
					93 86 87 
					96 93 87 
					96 87 90 
					97 88 91 
					98 89 88 
					98 88 97 
					99 90 89 
					99 89 98 
					100 96 90 
					100 90 99 
					97 91 101 
					101 91 92 
					101 92 102 
					102 92 94 
					95 93 96 
					102 94 103 
					103 94 95 
					104 95 96 
					103 95 104 
					104 96 100 
					98 97 105 
					97 106 105 
					106 97 107 
					97 101 107 
					99 98 108 
					108 98 105 
					99 108 109 
					100 99 109 
					104 100 109 
					102 110 101 
					101 110 111 
					101 111 107 
					112 102 103 
					112 113 102 
					102 114 110 
					114 102 113 
					103 104 115 
					116 103 115 
					112 103 116 
					115 104 117 
					117 104 109 
					118 108 105 
					106 118 105 
					106 120 119 
					118 106 119 
					120 106 107 
					111 120 107 
					117 108 121 
					108 122 121 
					108 123 122 
					108 124 123 
					108 125 124 
					108 118 125 
					108 117 109 
					126 110 114 
					110 126 127 
					111 110 120 
					110 127 120 
					112 116 113 
					126 113 128 
					113 116 128 
					126 114 113 
					115 117 129 
					115 129 130 
					116 115 130 
					131 116 130 
					128 116 131 
					129 117 121 
					118 132 125 
					118 132 125 
					132 118 119 
					120 133 119 
					119 135 134 
					133 132 119 
					120 136 133 
					120 127 136 
					129 121 122 
					122 138 137 
					122 137 139 
					122 139 140 
					141 138 122 
					141 122 142 
					122 123 142 
					129 122 140 
					123 143 142 
					123 124 143 
					125 144 124 
					144 145 124 
					124 145 143 
					125 132 146 
					125 146 147 
					125 147 144 
					148 127 126 
					148 126 128 
					148 136 127 
					149 128 131 
					148 128 149 
					130 129 140 
					151 130 150 
					130 140 150 
					151 150 130 
					131 130 151 
					151 130 150 
					151 152 131 
					149 131 152 
					153 146 132 
					153 132 133 
					153 133 154 
					136 154 133 
					134 135 155 
					135 134 155 
					135 134 155 
					156 134 135 
					156 157 134 
					158 155 134 
					158 134 157 
					135 155 159 
					135 159 160 
					156 135 161 
					161 135 160 
					136 149 154 
					148 149 136 
					137 138 162 
					139 137 162 
					138 163 162 
					141 163 138 
					140 139 164 
					164 139 162 
					165 140 164 
					165 150 140 
					141 142 166 
					141 166 167 
					141 167 163 
					168 166 142 
					168 142 143 
					168 143 169 
					170 169 143 
					170 143 145 
					170 145 144 
					170 144 147 
					171 147 146 
					171 146 172 
					153 172 146 
					171 170 147 
					149 173 154 
					173 149 152 
					150 174 151 
					165 175 150 
					175 174 150 
					165 175 150 
					151 176 152 
					174 176 151 
					152 161 160 
					177 152 176 
					177 161 152 
					160 173 152 
					153 154 178 
					153 178 172 
					160 159 154 
					179 154 159 
					173 160 154 
					179 178 154 
					181 180 155 
					158 181 155 
					182 159 155 
					182 155 180 
					156 183 157 
					156 161 177 
					156 177 176 
					156 176 174 
					156 174 183 
					157 183 162 
					163 157 162 
					158 157 184 
					184 157 163 
					158 184 181 
					182 185 159 
					179 159 185 
					175 164 162 
					174 175 162 
					183 174 162 
					181 184 163 
					167 181 163 
					163 181 167 
					181 163 167 
					165 164 175 
					181 167 166 
					168 169 166 
					166 169 170 
					171 181 166 
					171 166 170 
					171 185 180 
					171 180 181 
					171 172 178 
					171 178 185 
					179 185 178 
					182 180 185 
				</DataArray>
				<DataArray type="Int32" Name="offsets" format="ascii">
					3 6 9 12 15 18 21 24 27 30 33 36 39 42 45 48 51 54 57 60 63 66 69 72 75 78 81 84 87 90 93 96 99 102 105 108 111 114 117 120 123 126 129 132 135 138 141 144 147 150 153 156 159 162 165 168 171 174 177 180 183 186 189 192 195 198 201 204 207 210 213 216 219 222 225 228 231 234 237 240 243 246 249 252 255 258 261 264 267 270 273 276 279 282 285 288 291 294 297 300 303 306 309 312 315 318 321 324 327 330 333 336 339 342 345 348 351 354 357 360 363 366 369 372 375 378 381 384 387 390 393 396 399 402 405 408 411 414 417 420 423 426 429 432 435 438 441 444 447 450 453 456 459 462 465 468 471 474 477 480 483 486 489 492 495 498 501 504 507 510 513 516 519 522 525 528 531 534 537 540 543 546 549 552 555 558 561 564 567 570 573 576 579 582 585 588 591 594 597 600 603 606 609 612 615 618 621 624 627 630 633 636 639 642 645 648 651 654 657 660 663 666 669 672 675 678 681 684 687 690 693 696 699 702 705 708 711 714 717 720 723 726 729 732 735 738 741 744 747 750 753 756 759 762 765 768 771 774 777 780 783 786 789 792 795 798 801 804 807 810 813 816 819 822 825 828 831 834 837 840 843 846 849 852 855 858 861 864 867 870 873 876 879 882 885 888 891 894 897 900 903 906 909 912 915 918 921 924 927 930 933 936 939 942 945 948 951 954 957 960 963 966 969 972 975 978 981 984 987 990 993 996 999 1002 1005 1008 1011 1014 1017 1020 1023 1026 1029 1032 1035 1038 1041 1044 1047 1050 1053 1056 1059 1062 1065 1068 1071 1074 1077 1080 1083 1086 1089 1092 1095 1098 1101 1104 1107 1110 1113 1116 1119 1122 1125 1128 1131 1134 1137 1140 1143 1146 1149 1152 1155 1158 1161 1164 1167 1170 
				</DataArray>
			</Polys>
		</Piece>
	</PolyData>
</VTKFile>
